s 0.000000000 _0_ AGT  --- 0 cbr 1000 [0 0 0 0] ------- [0:0 18:0 32 0] [0] 0 0
r 0.000000000 _0_ RTR  --- 0 cbr 1000 [0 0 0 0] ------- [0:0 18:0 32 0] [0] 0 0
v 0 eval {set sim_annotation {MOBILE NODE MOVEMENTS}}
s 0.000000000 _0_ RTR  --- 0 AODV 48 [0 0 0 0] ------- [0:255 -1:255 30 0] [0x2 1 1 [18 0] [0 4]] (REQUEST)
s 0.000495000 _0_ MAC  --- 0 AODV 106 [0 ffffffff 0 800] ------- [0:255 -1:255 30 0] [0x2 1 1 [18 0] [0 4]] (REQUEST)
r 0.001343520 _12_ MAC  --- 0 AODV 48 [0 ffffffff 0 800] ------- [0:255 -1:255 30 0] [0x2 1 1 [18 0] [0 4]] (REQUEST)
r 0.001343527 _15_ MAC  --- 0 AODV 48 [0 ffffffff 0 800] ------- [0:255 -1:255 30 0] [0x2 1 1 [18 0] [0 4]] (REQUEST)
r 0.001343533 _18_ MAC  --- 0 AODV 48 [0 ffffffff 0 800] ------- [0:255 -1:255 30 0] [0x2 1 1 [18 0] [0 4]] (REQUEST)
r 0.001343555 _14_ MAC  --- 0 AODV 48 [0 ffffffff 0 800] ------- [0:255 -1:255 30 0] [0x2 1 1 [18 0] [0 4]] (REQUEST)
r 0.001343717 _17_ MAC  --- 0 AODV 48 [0 ffffffff 0 800] ------- [0:255 -1:255 30 0] [0x2 1 1 [18 0] [0 4]] (REQUEST)
r 0.001343737 _9_ MAC  --- 0 AODV 48 [0 ffffffff 0 800] ------- [0:255 -1:255 30 0] [0x2 1 1 [18 0] [0 4]] (REQUEST)
r 0.001343762 _19_ MAC  --- 0 AODV 48 [0 ffffffff 0 800] ------- [0:255 -1:255 30 0] [0x2 1 1 [18 0] [0 4]] (REQUEST)
r 0.001343786 _8_ MAC  --- 0 AODV 48 [0 ffffffff 0 800] ------- [0:255 -1:255 30 0] [0x2 1 1 [18 0] [0 4]] (REQUEST)
r 0.001343797 _7_ MAC  --- 0 AODV 48 [0 ffffffff 0 800] ------- [0:255 -1:255 30 0] [0x2 1 1 [18 0] [0 4]] (REQUEST)
r 0.001343865 _22_ MAC  --- 0 AODV 48 [0 ffffffff 0 800] ------- [0:255 -1:255 30 0] [0x2 1 1 [18 0] [0 4]] (REQUEST)
r 0.001343927 _16_ MAC  --- 0 AODV 48 [0 ffffffff 0 800] ------- [0:255 -1:255 30 0] [0x2 1 1 [18 0] [0 4]] (REQUEST)
r 0.001344047 _4_ MAC  --- 0 AODV 48 [0 ffffffff 0 800] ------- [0:255 -1:255 30 0] [0x2 1 1 [18 0] [0 4]] (REQUEST)
r 0.001344112 _10_ MAC  --- 0 AODV 48 [0 ffffffff 0 800] ------- [0:255 -1:255 30 0] [0x2 1 1 [18 0] [0 4]] (REQUEST)
r 0.001344128 _11_ MAC  --- 0 AODV 48 [0 ffffffff 0 800] ------- [0:255 -1:255 30 0] [0x2 1 1 [18 0] [0 4]] (REQUEST)
r 0.001344182 _13_ MAC  --- 0 AODV 48 [0 ffffffff 0 800] ------- [0:255 -1:255 30 0] [0x2 1 1 [18 0] [0 4]] (REQUEST)
r 0.001344207 _6_ MAC  --- 0 AODV 48 [0 ffffffff 0 800] ------- [0:255 -1:255 30 0] [0x2 1 1 [18 0] [0 4]] (REQUEST)
r 0.001344278 _5_ MAC  --- 0 AODV 48 [0 ffffffff 0 800] ------- [0:255 -1:255 30 0] [0x2 1 1 [18 0] [0 4]] (REQUEST)
r 0.001344330 _3_ MAC  --- 0 AODV 48 [0 ffffffff 0 800] ------- [0:255 -1:255 30 0] [0x2 1 1 [18 0] [0 4]] (REQUEST)
r 0.001344435 _20_ MAC  --- 0 AODV 48 [0 ffffffff 0 800] ------- [0:255 -1:255 30 0] [0x2 1 1 [18 0] [0 4]] (REQUEST)
r 0.001344491 _21_ MAC  --- 0 AODV 48 [0 ffffffff 0 800] ------- [0:255 -1:255 30 0] [0x2 1 1 [18 0] [0 4]] (REQUEST)
r 0.001344591 _2_ MAC  --- 0 AODV 48 [0 ffffffff 0 800] ------- [0:255 -1:255 30 0] [0x2 1 1 [18 0] [0 4]] (REQUEST)
r 0.001346110 _1_ MAC  --- 0 AODV 48 [0 ffffffff 0 800] ------- [0:255 -1:255 30 0] [0x2 1 1 [18 0] [0 4]] (REQUEST)
r 0.001368520 _12_ RTR  --- 0 AODV 48 [0 ffffffff 0 800] ------- [0:255 -1:255 30 0] [0x2 1 1 [18 0] [0 4]] (REQUEST)
r 0.001368527 _15_ RTR  --- 0 AODV 48 [0 ffffffff 0 800] ------- [0:255 -1:255 30 0] [0x2 1 1 [18 0] [0 4]] (REQUEST)
r 0.001368533 _18_ RTR  --- 0 AODV 48 [0 ffffffff 0 800] ------- [0:255 -1:255 30 0] [0x2 1 1 [18 0] [0 4]] (REQUEST)
s 0.001368533 _18_ RTR  --- 0 AODV 44 [0 0 0 0] ------- [18:255 0:255 30 0] [0x4 1 [18 4] 10.000000] (REPLY)
r 0.001368555 _14_ RTR  --- 0 AODV 48 [0 ffffffff 0 800] ------- [0:255 -1:255 30 0] [0x2 1 1 [18 0] [0 4]] (REQUEST)
r 0.001368717 _17_ RTR  --- 0 AODV 48 [0 ffffffff 0 800] ------- [0:255 -1:255 30 0] [0x2 1 1 [18 0] [0 4]] (REQUEST)
r 0.001368737 _9_ RTR  --- 0 AODV 48 [0 ffffffff 0 800] ------- [0:255 -1:255 30 0] [0x2 1 1 [18 0] [0 4]] (REQUEST)
r 0.001368762 _19_ RTR  --- 0 AODV 48 [0 ffffffff 0 800] ------- [0:255 -1:255 30 0] [0x2 1 1 [18 0] [0 4]] (REQUEST)
r 0.001368786 _8_ RTR  --- 0 AODV 48 [0 ffffffff 0 800] ------- [0:255 -1:255 30 0] [0x2 1 1 [18 0] [0 4]] (REQUEST)
r 0.001368797 _7_ RTR  --- 0 AODV 48 [0 ffffffff 0 800] ------- [0:255 -1:255 30 0] [0x2 1 1 [18 0] [0 4]] (REQUEST)
r 0.001368865 _22_ RTR  --- 0 AODV 48 [0 ffffffff 0 800] ------- [0:255 -1:255 30 0] [0x2 1 1 [18 0] [0 4]] (REQUEST)
r 0.001368927 _16_ RTR  --- 0 AODV 48 [0 ffffffff 0 800] ------- [0:255 -1:255 30 0] [0x2 1 1 [18 0] [0 4]] (REQUEST)
r 0.001369047 _4_ RTR  --- 0 AODV 48 [0 ffffffff 0 800] ------- [0:255 -1:255 30 0] [0x2 1 1 [18 0] [0 4]] (REQUEST)
r 0.001369112 _10_ RTR  --- 0 AODV 48 [0 ffffffff 0 800] ------- [0:255 -1:255 30 0] [0x2 1 1 [18 0] [0 4]] (REQUEST)
r 0.001369128 _11_ RTR  --- 0 AODV 48 [0 ffffffff 0 800] ------- [0:255 -1:255 30 0] [0x2 1 1 [18 0] [0 4]] (REQUEST)
r 0.001369182 _13_ RTR  --- 0 AODV 48 [0 ffffffff 0 800] ------- [0:255 -1:255 30 0] [0x2 1 1 [18 0] [0 4]] (REQUEST)
r 0.001369207 _6_ RTR  --- 0 AODV 48 [0 ffffffff 0 800] ------- [0:255 -1:255 30 0] [0x2 1 1 [18 0] [0 4]] (REQUEST)
r 0.001369278 _5_ RTR  --- 0 AODV 48 [0 ffffffff 0 800] ------- [0:255 -1:255 30 0] [0x2 1 1 [18 0] [0 4]] (REQUEST)
r 0.001369330 _3_ RTR  --- 0 AODV 48 [0 ffffffff 0 800] ------- [0:255 -1:255 30 0] [0x2 1 1 [18 0] [0 4]] (REQUEST)
r 0.001369435 _20_ RTR  --- 0 AODV 48 [0 ffffffff 0 800] ------- [0:255 -1:255 30 0] [0x2 1 1 [18 0] [0 4]] (REQUEST)
r 0.001369491 _21_ RTR  --- 0 AODV 48 [0 ffffffff 0 800] ------- [0:255 -1:255 30 0] [0x2 1 1 [18 0] [0 4]] (REQUEST)
r 0.001369591 _2_ RTR  --- 0 AODV 48 [0 ffffffff 0 800] ------- [0:255 -1:255 30 0] [0x2 1 1 [18 0] [0 4]] (REQUEST)
r 0.001371110 _1_ RTR  --- 0 AODV 48 [0 ffffffff 0 800] ------- [0:255 -1:255 30 0] [0x2 1 1 [18 0] [0 4]] (REQUEST)
s 0.001532952 _21_ RTR  --- 0 AODV 48 [0 ffffffff 0 800] ------- [21:255 -1:255 29 0] [0x2 2 1 [18 0] [0 4]] (REQUEST)
s 0.001743533 _18_ MAC  --- 0 ARP 86 [0 ffffffff 12 806] ------- [REQUEST 18/18 0/0]
r 0.002431827 _17_ MAC  --- 0 ARP 28 [0 ffffffff 12 806] ------- [REQUEST 18/18 0/0]
r 0.002432066 _0_ MAC  --- 0 ARP 28 [0 ffffffff 12 806] ------- [REQUEST 18/18 0/0]
r 0.002432097 _15_ MAC  --- 0 ARP 28 [0 ffffffff 12 806] ------- [REQUEST 18/18 0/0]
r 0.002432264 _16_ MAC  --- 0 ARP 28 [0 ffffffff 12 806] ------- [REQUEST 18/18 0/0]
r 0.002432289 _22_ MAC  --- 0 ARP 28 [0 ffffffff 12 806] ------- [REQUEST 18/18 0/0]
r 0.002432471 _19_ MAC  --- 0 ARP 28 [0 ffffffff 12 806] ------- [REQUEST 18/18 0/0]
r 0.002432491 _12_ MAC  --- 0 ARP 28 [0 ffffffff 12 806] ------- [REQUEST 18/18 0/0]
r 0.002432507 _14_ MAC  --- 0 ARP 28 [0 ffffffff 12 806] ------- [REQUEST 18/18 0/0]
r 0.002432522 _9_ MAC  --- 0 ARP 28 [0 ffffffff 12 806] ------- [REQUEST 18/18 0/0]
r 0.002432731 _10_ MAC  --- 0 ARP 28 [0 ffffffff 12 806] ------- [REQUEST 18/18 0/0]
r 0.002432846 _7_ MAC  --- 0 ARP 28 [0 ffffffff 12 806] ------- [REQUEST 18/18 0/0]
r 0.002432849 _8_ MAC  --- 0 ARP 28 [0 ffffffff 12 806] ------- [REQUEST 18/18 0/0]
r 0.002432984 _4_ MAC  --- 0 ARP 28 [0 ffffffff 12 806] ------- [REQUEST 18/18 0/0]
r 0.002433003 _21_ MAC  --- 0 ARP 28 [0 ffffffff 12 806] ------- [REQUEST 18/18 0/0]
r 0.002433076 _13_ MAC  --- 0 ARP 28 [0 ffffffff 12 806] ------- [REQUEST 18/18 0/0]
r 0.002433146 _11_ MAC  --- 0 ARP 28 [0 ffffffff 12 806] ------- [REQUEST 18/18 0/0]
r 0.002433156 _20_ MAC  --- 0 ARP 28 [0 ffffffff 12 806] ------- [REQUEST 18/18 0/0]
r 0.002433162 _3_ MAC  --- 0 ARP 28 [0 ffffffff 12 806] ------- [REQUEST 18/18 0/0]
r 0.002433272 _6_ MAC  --- 0 ARP 28 [0 ffffffff 12 806] ------- [REQUEST 18/18 0/0]
r 0.002433306 _5_ MAC  --- 0 ARP 28 [0 ffffffff 12 806] ------- [REQUEST 18/18 0/0]
r 0.002433539 _2_ MAC  --- 0 ARP 28 [0 ffffffff 12 806] ------- [REQUEST 18/18 0/0]
r 0.002434297 _1_ MAC  --- 0 ARP 28 [0 ffffffff 12 806] ------- [REQUEST 18/18 0/0]
s 0.002456308 _12_ RTR  --- 0 AODV 48 [0 ffffffff 0 800] ------- [12:255 -1:255 29 0] [0x2 2 1 [18 0] [0 4]] (REQUEST)
s 0.002601023 _11_ RTR  --- 0 AODV 48 [0 ffffffff 0 800] ------- [11:255 -1:255 29 0] [0x2 2 1 [18 0] [0 4]] (REQUEST)
s 0.002646126 _17_ RTR  --- 0 AODV 48 [0 ffffffff 0 800] ------- [17:255 -1:255 29 0] [0x2 2 1 [18 0] [0 4]] (REQUEST)
s 0.002663003 _21_ MAC  --- 0 AODV 106 [0 ffffffff 15 800] ------- [21:255 -1:255 29 0] [0x2 2 1 [18 0] [0 4]] (REQUEST)
s 0.003141017 _2_ RTR  --- 0 AODV 48 [0 ffffffff 0 800] ------- [2:255 -1:255 29 0] [0x2 2 1 [18 0] [0 4]] (REQUEST)
r 0.003511604 _20_ MAC  --- 0 AODV 48 [0 ffffffff 15 800] ------- [21:255 -1:255 29 0] [0x2 2 1 [18 0] [0 4]] (REQUEST)
r 0.003511718 _22_ MAC  --- 0 AODV 48 [0 ffffffff 15 800] ------- [21:255 -1:255 29 0] [0x2 2 1 [18 0] [0 4]] (REQUEST)
r 0.003511775 _19_ MAC  --- 0 AODV 48 [0 ffffffff 15 800] ------- [21:255 -1:255 29 0] [0x2 2 1 [18 0] [0 4]] (REQUEST)
r 0.003512096 _13_ MAC  --- 0 AODV 48 [0 ffffffff 15 800] ------- [21:255 -1:255 29 0] [0x2 2 1 [18 0] [0 4]] (REQUEST)
r 0.003512256 _12_ MAC  --- 0 AODV 48 [0 ffffffff 15 800] ------- [21:255 -1:255 29 0] [0x2 2 1 [18 0] [0 4]] (REQUEST)
r 0.003512474 _18_ MAC  --- 0 AODV 48 [0 ffffffff 15 800] ------- [21:255 -1:255 29 0] [0x2 2 1 [18 0] [0 4]] (REQUEST)
r 0.003512495 _0_ MAC  --- 0 AODV 48 [0 ffffffff 15 800] ------- [21:255 -1:255 29 0] [0x2 2 1 [18 0] [0 4]] (REQUEST)
r 0.003512587 _11_ MAC  --- 0 AODV 48 [0 ffffffff 15 800] ------- [21:255 -1:255 29 0] [0x2 2 1 [18 0] [0 4]] (REQUEST)
r 0.003512749 _8_ MAC  --- 0 AODV 48 [0 ffffffff 15 800] ------- [21:255 -1:255 29 0] [0x2 2 1 [18 0] [0 4]] (REQUEST)
r 0.003512754 _17_ MAC  --- 0 AODV 48 [0 ffffffff 15 800] ------- [21:255 -1:255 29 0] [0x2 2 1 [18 0] [0 4]] (REQUEST)
r 0.003512936 _15_ MAC  --- 0 AODV 48 [0 ffffffff 15 800] ------- [21:255 -1:255 29 0] [0x2 2 1 [18 0] [0 4]] (REQUEST)
r 0.003513006 _1_ MAC  --- 0 AODV 48 [0 ffffffff 15 800] ------- [21:255 -1:255 29 0] [0x2 2 1 [18 0] [0 4]] (REQUEST)
r 0.003513013 _14_ MAC  --- 0 AODV 48 [0 ffffffff 15 800] ------- [21:255 -1:255 29 0] [0x2 2 1 [18 0] [0 4]] (REQUEST)
r 0.003513027 _7_ MAC  --- 0 AODV 48 [0 ffffffff 15 800] ------- [21:255 -1:255 29 0] [0x2 2 1 [18 0] [0 4]] (REQUEST)
r 0.003513178 _6_ MAC  --- 0 AODV 48 [0 ffffffff 15 800] ------- [21:255 -1:255 29 0] [0x2 2 1 [18 0] [0 4]] (REQUEST)
r 0.003513203 _16_ MAC  --- 0 AODV 48 [0 ffffffff 15 800] ------- [21:255 -1:255 29 0] [0x2 2 1 [18 0] [0 4]] (REQUEST)
r 0.003513232 _9_ MAC  --- 0 AODV 48 [0 ffffffff 15 800] ------- [21:255 -1:255 29 0] [0x2 2 1 [18 0] [0 4]] (REQUEST)
r 0.003513468 _4_ MAC  --- 0 AODV 48 [0 ffffffff 15 800] ------- [21:255 -1:255 29 0] [0x2 2 1 [18 0] [0 4]] (REQUEST)
r 0.003513497 _5_ MAC  --- 0 AODV 48 [0 ffffffff 15 800] ------- [21:255 -1:255 29 0] [0x2 2 1 [18 0] [0 4]] (REQUEST)
r 0.003513579 _10_ MAC  --- 0 AODV 48 [0 ffffffff 15 800] ------- [21:255 -1:255 29 0] [0x2 2 1 [18 0] [0 4]] (REQUEST)
r 0.003513807 _3_ MAC  --- 0 AODV 48 [0 ffffffff 15 800] ------- [21:255 -1:255 29 0] [0x2 2 1 [18 0] [0 4]] (REQUEST)
r 0.003513958 _2_ MAC  --- 0 AODV 48 [0 ffffffff 15 800] ------- [21:255 -1:255 29 0] [0x2 2 1 [18 0] [0 4]] (REQUEST)
r 0.003536604 _20_ RTR  --- 0 AODV 48 [0 ffffffff 15 800] ------- [21:255 -1:255 29 0] [0x2 2 1 [18 0] [0 4]] (REQUEST)
r 0.003536718 _22_ RTR  --- 0 AODV 48 [0 ffffffff 15 800] ------- [21:255 -1:255 29 0] [0x2 2 1 [18 0] [0 4]] (REQUEST)
r 0.003536775 _19_ RTR  --- 0 AODV 48 [0 ffffffff 15 800] ------- [21:255 -1:255 29 0] [0x2 2 1 [18 0] [0 4]] (REQUEST)
r 0.003537096 _13_ RTR  --- 0 AODV 48 [0 ffffffff 15 800] ------- [21:255 -1:255 29 0] [0x2 2 1 [18 0] [0 4]] (REQUEST)
r 0.003537256 _12_ RTR  --- 0 AODV 48 [0 ffffffff 15 800] ------- [21:255 -1:255 29 0] [0x2 2 1 [18 0] [0 4]] (REQUEST)
r 0.003537474 _18_ RTR  --- 0 AODV 48 [0 ffffffff 15 800] ------- [21:255 -1:255 29 0] [0x2 2 1 [18 0] [0 4]] (REQUEST)
r 0.003537495 _0_ RTR  --- 0 AODV 48 [0 ffffffff 15 800] ------- [21:255 -1:255 29 0] [0x2 2 1 [18 0] [0 4]] (REQUEST)
r 0.003537587 _11_ RTR  --- 0 AODV 48 [0 ffffffff 15 800] ------- [21:255 -1:255 29 0] [0x2 2 1 [18 0] [0 4]] (REQUEST)
r 0.003537749 _8_ RTR  --- 0 AODV 48 [0 ffffffff 15 800] ------- [21:255 -1:255 29 0] [0x2 2 1 [18 0] [0 4]] (REQUEST)
r 0.003537754 _17_ RTR  --- 0 AODV 48 [0 ffffffff 15 800] ------- [21:255 -1:255 29 0] [0x2 2 1 [18 0] [0 4]] (REQUEST)
r 0.003537936 _15_ RTR  --- 0 AODV 48 [0 ffffffff 15 800] ------- [21:255 -1:255 29 0] [0x2 2 1 [18 0] [0 4]] (REQUEST)
r 0.003538006 _1_ RTR  --- 0 AODV 48 [0 ffffffff 15 800] ------- [21:255 -1:255 29 0] [0x2 2 1 [18 0] [0 4]] (REQUEST)
r 0.003538013 _14_ RTR  --- 0 AODV 48 [0 ffffffff 15 800] ------- [21:255 -1:255 29 0] [0x2 2 1 [18 0] [0 4]] (REQUEST)
r 0.003538027 _7_ RTR  --- 0 AODV 48 [0 ffffffff 15 800] ------- [21:255 -1:255 29 0] [0x2 2 1 [18 0] [0 4]] (REQUEST)
r 0.003538178 _6_ RTR  --- 0 AODV 48 [0 ffffffff 15 800] ------- [21:255 -1:255 29 0] [0x2 2 1 [18 0] [0 4]] (REQUEST)
r 0.003538203 _16_ RTR  --- 0 AODV 48 [0 ffffffff 15 800] ------- [21:255 -1:255 29 0] [0x2 2 1 [18 0] [0 4]] (REQUEST)
r 0.003538232 _9_ RTR  --- 0 AODV 48 [0 ffffffff 15 800] ------- [21:255 -1:255 29 0] [0x2 2 1 [18 0] [0 4]] (REQUEST)
r 0.003538468 _4_ RTR  --- 0 AODV 48 [0 ffffffff 15 800] ------- [21:255 -1:255 29 0] [0x2 2 1 [18 0] [0 4]] (REQUEST)
r 0.003538497 _5_ RTR  --- 0 AODV 48 [0 ffffffff 15 800] ------- [21:255 -1:255 29 0] [0x2 2 1 [18 0] [0 4]] (REQUEST)
r 0.003538579 _10_ RTR  --- 0 AODV 48 [0 ffffffff 15 800] ------- [21:255 -1:255 29 0] [0x2 2 1 [18 0] [0 4]] (REQUEST)
r 0.003538807 _3_ RTR  --- 0 AODV 48 [0 ffffffff 15 800] ------- [21:255 -1:255 29 0] [0x2 2 1 [18 0] [0 4]] (REQUEST)
r 0.003538958 _2_ RTR  --- 0 AODV 48 [0 ffffffff 15 800] ------- [21:255 -1:255 29 0] [0x2 2 1 [18 0] [0 4]] (REQUEST)
s 0.003562754 _17_ MAC  --- 0 AODV 106 [0 ffffffff 11 800] ------- [17:255 -1:255 29 0] [0x2 2 1 [18 0] [0 4]] (REQUEST)
s 0.004383629 _1_ RTR  --- 0 AODV 48 [0 ffffffff 0 800] ------- [1:255 -1:255 29 0] [0x2 2 1 [18 0] [0 4]] (REQUEST)
r 0.004411049 _18_ MAC  --- 0 AODV 48 [0 ffffffff 11 800] ------- [17:255 -1:255 29 0] [0x2 2 1 [18 0] [0 4]] (REQUEST)
r 0.004411233 _16_ MAC  --- 0 AODV 48 [0 ffffffff 11 800] ------- [17:255 -1:255 29 0] [0x2 2 1 [18 0] [0 4]] (REQUEST)
r 0.004411243 _15_ MAC  --- 0 AODV 48 [0 ffffffff 11 800] ------- [17:255 -1:255 29 0] [0x2 2 1 [18 0] [0 4]] (REQUEST)
r 0.004411472 _0_ MAC  --- 0 AODV 48 [0 ffffffff 11 800] ------- [17:255 -1:255 29 0] [0x2 2 1 [18 0] [0 4]] (REQUEST)
r 0.004411686 _9_ MAC  --- 0 AODV 48 [0 ffffffff 11 800] ------- [17:255 -1:255 29 0] [0x2 2 1 [18 0] [0 4]] (REQUEST)
r 0.004411772 _14_ MAC  --- 0 AODV 48 [0 ffffffff 11 800] ------- [17:255 -1:255 29 0] [0x2 2 1 [18 0] [0 4]] (REQUEST)
r 0.004411785 _10_ MAC  --- 0 AODV 48 [0 ffffffff 11 800] ------- [17:255 -1:255 29 0] [0x2 2 1 [18 0] [0 4]] (REQUEST)
r 0.004411792 _22_ MAC  --- 0 AODV 48 [0 ffffffff 11 800] ------- [17:255 -1:255 29 0] [0x2 2 1 [18 0] [0 4]] (REQUEST)
r 0.004411957 _12_ MAC  --- 0 AODV 48 [0 ffffffff 11 800] ------- [17:255 -1:255 29 0] [0x2 2 1 [18 0] [0 4]] (REQUEST)
r 0.004411984 _19_ MAC  --- 0 AODV 48 [0 ffffffff 11 800] ------- [17:255 -1:255 29 0] [0x2 2 1 [18 0] [0 4]] (REQUEST)
r 0.004412176 _7_ MAC  --- 0 AODV 48 [0 ffffffff 11 800] ------- [17:255 -1:255 29 0] [0x2 2 1 [18 0] [0 4]] (REQUEST)
r 0.004412205 _4_ MAC  --- 0 AODV 48 [0 ffffffff 11 800] ------- [17:255 -1:255 29 0] [0x2 2 1 [18 0] [0 4]] (REQUEST)
r 0.004412247 _8_ MAC  --- 0 AODV 48 [0 ffffffff 11 800] ------- [17:255 -1:255 29 0] [0x2 2 1 [18 0] [0 4]] (REQUEST)
r 0.004412305 _3_ MAC  --- 0 AODV 48 [0 ffffffff 11 800] ------- [17:255 -1:255 29 0] [0x2 2 1 [18 0] [0 4]] (REQUEST)
r 0.004412506 _21_ MAC  --- 0 AODV 48 [0 ffffffff 11 800] ------- [17:255 -1:255 29 0] [0x2 2 1 [18 0] [0 4]] (REQUEST)
r 0.004412572 _13_ MAC  --- 0 AODV 48 [0 ffffffff 11 800] ------- [17:255 -1:255 29 0] [0x2 2 1 [18 0] [0 4]] (REQUEST)
r 0.004412595 _11_ MAC  --- 0 AODV 48 [0 ffffffff 11 800] ------- [17:255 -1:255 29 0] [0x2 2 1 [18 0] [0 4]] (REQUEST)
r 0.004412597 _5_ MAC  --- 0 AODV 48 [0 ffffffff 11 800] ------- [17:255 -1:255 29 0] [0x2 2 1 [18 0] [0 4]] (REQUEST)
r 0.004412633 _6_ MAC  --- 0 AODV 48 [0 ffffffff 11 800] ------- [17:255 -1:255 29 0] [0x2 2 1 [18 0] [0 4]] (REQUEST)
r 0.004412671 _20_ MAC  --- 0 AODV 48 [0 ffffffff 11 800] ------- [17:255 -1:255 29 0] [0x2 2 1 [18 0] [0 4]] (REQUEST)
r 0.004412749 _2_ MAC  --- 0 AODV 48 [0 ffffffff 11 800] ------- [17:255 -1:255 29 0] [0x2 2 1 [18 0] [0 4]] (REQUEST)
r 0.004413661 _1_ MAC  --- 0 AODV 48 [0 ffffffff 11 800] ------- [17:255 -1:255 29 0] [0x2 2 1 [18 0] [0 4]] (REQUEST)
r 0.004436049 _18_ RTR  --- 0 AODV 48 [0 ffffffff 11 800] ------- [17:255 -1:255 29 0] [0x2 2 1 [18 0] [0 4]] (REQUEST)
r 0.004436233 _16_ RTR  --- 0 AODV 48 [0 ffffffff 11 800] ------- [17:255 -1:255 29 0] [0x2 2 1 [18 0] [0 4]] (REQUEST)
r 0.004436243 _15_ RTR  --- 0 AODV 48 [0 ffffffff 11 800] ------- [17:255 -1:255 29 0] [0x2 2 1 [18 0] [0 4]] (REQUEST)
r 0.004436472 _0_ RTR  --- 0 AODV 48 [0 ffffffff 11 800] ------- [17:255 -1:255 29 0] [0x2 2 1 [18 0] [0 4]] (REQUEST)
r 0.004436686 _9_ RTR  --- 0 AODV 48 [0 ffffffff 11 800] ------- [17:255 -1:255 29 0] [0x2 2 1 [18 0] [0 4]] (REQUEST)
r 0.004436772 _14_ RTR  --- 0 AODV 48 [0 ffffffff 11 800] ------- [17:255 -1:255 29 0] [0x2 2 1 [18 0] [0 4]] (REQUEST)
r 0.004436785 _10_ RTR  --- 0 AODV 48 [0 ffffffff 11 800] ------- [17:255 -1:255 29 0] [0x2 2 1 [18 0] [0 4]] (REQUEST)
r 0.004436792 _22_ RTR  --- 0 AODV 48 [0 ffffffff 11 800] ------- [17:255 -1:255 29 0] [0x2 2 1 [18 0] [0 4]] (REQUEST)
r 0.004436957 _12_ RTR  --- 0 AODV 48 [0 ffffffff 11 800] ------- [17:255 -1:255 29 0] [0x2 2 1 [18 0] [0 4]] (REQUEST)
r 0.004436984 _19_ RTR  --- 0 AODV 48 [0 ffffffff 11 800] ------- [17:255 -1:255 29 0] [0x2 2 1 [18 0] [0 4]] (REQUEST)
r 0.004437176 _7_ RTR  --- 0 AODV 48 [0 ffffffff 11 800] ------- [17:255 -1:255 29 0] [0x2 2 1 [18 0] [0 4]] (REQUEST)
r 0.004437205 _4_ RTR  --- 0 AODV 48 [0 ffffffff 11 800] ------- [17:255 -1:255 29 0] [0x2 2 1 [18 0] [0 4]] (REQUEST)
r 0.004437247 _8_ RTR  --- 0 AODV 48 [0 ffffffff 11 800] ------- [17:255 -1:255 29 0] [0x2 2 1 [18 0] [0 4]] (REQUEST)
r 0.004437305 _3_ RTR  --- 0 AODV 48 [0 ffffffff 11 800] ------- [17:255 -1:255 29 0] [0x2 2 1 [18 0] [0 4]] (REQUEST)
r 0.004437506 _21_ RTR  --- 0 AODV 48 [0 ffffffff 11 800] ------- [17:255 -1:255 29 0] [0x2 2 1 [18 0] [0 4]] (REQUEST)
r 0.004437572 _13_ RTR  --- 0 AODV 48 [0 ffffffff 11 800] ------- [17:255 -1:255 29 0] [0x2 2 1 [18 0] [0 4]] (REQUEST)
r 0.004437595 _11_ RTR  --- 0 AODV 48 [0 ffffffff 11 800] ------- [17:255 -1:255 29 0] [0x2 2 1 [18 0] [0 4]] (REQUEST)
r 0.004437597 _5_ RTR  --- 0 AODV 48 [0 ffffffff 11 800] ------- [17:255 -1:255 29 0] [0x2 2 1 [18 0] [0 4]] (REQUEST)
r 0.004437633 _6_ RTR  --- 0 AODV 48 [0 ffffffff 11 800] ------- [17:255 -1:255 29 0] [0x2 2 1 [18 0] [0 4]] (REQUEST)
r 0.004437671 _20_ RTR  --- 0 AODV 48 [0 ffffffff 11 800] ------- [17:255 -1:255 29 0] [0x2 2 1 [18 0] [0 4]] (REQUEST)
r 0.004437749 _2_ RTR  --- 0 AODV 48 [0 ffffffff 11 800] ------- [17:255 -1:255 29 0] [0x2 2 1 [18 0] [0 4]] (REQUEST)
r 0.004438661 _1_ RTR  --- 0 AODV 48 [0 ffffffff 11 800] ------- [17:255 -1:255 29 0] [0x2 2 1 [18 0] [0 4]] (REQUEST)
s 0.004483661 _1_ MAC  --- 0 AODV 106 [0 ffffffff 1 800] ------- [1:255 -1:255 29 0] [0x2 2 1 [18 0] [0 4]] (REQUEST)
s 0.004639085 _15_ RTR  --- 0 AODV 48 [0 ffffffff 0 800] ------- [15:255 -1:255 29 0] [0x2 2 1 [18 0] [0 4]] (REQUEST)
r 0.005333663 _21_ MAC  --- 0 AODV 48 [0 ffffffff 1 800] ------- [1:255 -1:255 29 0] [0x2 2 1 [18 0] [0 4]] (REQUEST)
r 0.005333943 _22_ MAC  --- 0 AODV 48 [0 ffffffff 1 800] ------- [1:255 -1:255 29 0] [0x2 2 1 [18 0] [0 4]] (REQUEST)
r 0.005334241 _20_ MAC  --- 0 AODV 48 [0 ffffffff 1 800] ------- [1:255 -1:255 29 0] [0x2 2 1 [18 0] [0 4]] (REQUEST)
r 0.005334291 _19_ MAC  --- 0 AODV 48 [0 ffffffff 1 800] ------- [1:255 -1:255 29 0] [0x2 2 1 [18 0] [0 4]] (REQUEST)
r 0.005334424 _18_ MAC  --- 0 AODV 48 [0 ffffffff 1 800] ------- [1:255 -1:255 29 0] [0x2 2 1 [18 0] [0 4]] (REQUEST)
r 0.005334567 _17_ MAC  --- 0 AODV 48 [0 ffffffff 1 800] ------- [1:255 -1:255 29 0] [0x2 2 1 [18 0] [0 4]] (REQUEST)
r 0.005334755 _13_ MAC  --- 0 AODV 48 [0 ffffffff 1 800] ------- [1:255 -1:255 29 0] [0x2 2 1 [18 0] [0 4]] (REQUEST)
r 0.005334770 _12_ MAC  --- 0 AODV 48 [0 ffffffff 1 800] ------- [1:255 -1:255 29 0] [0x2 2 1 [18 0] [0 4]] (REQUEST)
r 0.005334770 _0_ MAC  --- 0 AODV 48 [0 ffffffff 1 800] ------- [1:255 -1:255 29 0] [0x2 2 1 [18 0] [0 4]] (REQUEST)
r 0.005334987 _15_ MAC  --- 0 AODV 48 [0 ffffffff 1 800] ------- [1:255 -1:255 29 0] [0x2 2 1 [18 0] [0 4]] (REQUEST)
r 0.005335021 _16_ MAC  --- 0 AODV 48 [0 ffffffff 1 800] ------- [1:255 -1:255 29 0] [0x2 2 1 [18 0] [0 4]] (REQUEST)
r 0.005335228 _11_ MAC  --- 0 AODV 48 [0 ffffffff 1 800] ------- [1:255 -1:255 29 0] [0x2 2 1 [18 0] [0 4]] (REQUEST)
r 0.005335297 _8_ MAC  --- 0 AODV 48 [0 ffffffff 1 800] ------- [1:255 -1:255 29 0] [0x2 2 1 [18 0] [0 4]] (REQUEST)
r 0.005335322 _14_ MAC  --- 0 AODV 48 [0 ffffffff 1 800] ------- [1:255 -1:255 29 0] [0x2 2 1 [18 0] [0 4]] (REQUEST)
r 0.005335408 _9_ MAC  --- 0 AODV 48 [0 ffffffff 1 800] ------- [1:255 -1:255 29 0] [0x2 2 1 [18 0] [0 4]] (REQUEST)
r 0.005335498 _7_ MAC  --- 0 AODV 48 [0 ffffffff 1 800] ------- [1:255 -1:255 29 0] [0x2 2 1 [18 0] [0 4]] (REQUEST)
r 0.005335596 _10_ MAC  --- 0 AODV 48 [0 ffffffff 1 800] ------- [1:255 -1:255 29 0] [0x2 2 1 [18 0] [0 4]] (REQUEST)
r 0.005335756 _6_ MAC  --- 0 AODV 48 [0 ffffffff 1 800] ------- [1:255 -1:255 29 0] [0x2 2 1 [18 0] [0 4]] (REQUEST)
r 0.005335815 _4_ MAC  --- 0 AODV 48 [0 ffffffff 1 800] ------- [1:255 -1:255 29 0] [0x2 2 1 [18 0] [0 4]] (REQUEST)
r 0.005335994 _5_ MAC  --- 0 AODV 48 [0 ffffffff 1 800] ------- [1:255 -1:255 29 0] [0x2 2 1 [18 0] [0 4]] (REQUEST)
r 0.005336047 _3_ MAC  --- 0 AODV 48 [0 ffffffff 1 800] ------- [1:255 -1:255 29 0] [0x2 2 1 [18 0] [0 4]] (REQUEST)
r 0.005336361 _2_ MAC  --- 0 AODV 48 [0 ffffffff 1 800] ------- [1:255 -1:255 29 0] [0x2 2 1 [18 0] [0 4]] (REQUEST)
r 0.005358663 _21_ RTR  --- 0 AODV 48 [0 ffffffff 1 800] ------- [1:255 -1:255 29 0] [0x2 2 1 [18 0] [0 4]] (REQUEST)
r 0.005358943 _22_ RTR  --- 0 AODV 48 [0 ffffffff 1 800] ------- [1:255 -1:255 29 0] [0x2 2 1 [18 0] [0 4]] (REQUEST)
r 0.005359241 _20_ RTR  --- 0 AODV 48 [0 ffffffff 1 800] ------- [1:255 -1:255 29 0] [0x2 2 1 [18 0] [0 4]] (REQUEST)
r 0.005359291 _19_ RTR  --- 0 AODV 48 [0 ffffffff 1 800] ------- [1:255 -1:255 29 0] [0x2 2 1 [18 0] [0 4]] (REQUEST)
r 0.005359424 _18_ RTR  --- 0 AODV 48 [0 ffffffff 1 800] ------- [1:255 -1:255 29 0] [0x2 2 1 [18 0] [0 4]] (REQUEST)
r 0.005359567 _17_ RTR  --- 0 AODV 48 [0 ffffffff 1 800] ------- [1:255 -1:255 29 0] [0x2 2 1 [18 0] [0 4]] (REQUEST)
r 0.005359755 _13_ RTR  --- 0 AODV 48 [0 ffffffff 1 800] ------- [1:255 -1:255 29 0] [0x2 2 1 [18 0] [0 4]] (REQUEST)
r 0.005359770 _12_ RTR  --- 0 AODV 48 [0 ffffffff 1 800] ------- [1:255 -1:255 29 0] [0x2 2 1 [18 0] [0 4]] (REQUEST)
r 0.005359770 _0_ RTR  --- 0 AODV 48 [0 ffffffff 1 800] ------- [1:255 -1:255 29 0] [0x2 2 1 [18 0] [0 4]] (REQUEST)
r 0.005359987 _15_ RTR  --- 0 AODV 48 [0 ffffffff 1 800] ------- [1:255 -1:255 29 0] [0x2 2 1 [18 0] [0 4]] (REQUEST)
r 0.005360021 _16_ RTR  --- 0 AODV 48 [0 ffffffff 1 800] ------- [1:255 -1:255 29 0] [0x2 2 1 [18 0] [0 4]] (REQUEST)
r 0.005360228 _11_ RTR  --- 0 AODV 48 [0 ffffffff 1 800] ------- [1:255 -1:255 29 0] [0x2 2 1 [18 0] [0 4]] (REQUEST)
r 0.005360297 _8_ RTR  --- 0 AODV 48 [0 ffffffff 1 800] ------- [1:255 -1:255 29 0] [0x2 2 1 [18 0] [0 4]] (REQUEST)
r 0.005360322 _14_ RTR  --- 0 AODV 48 [0 ffffffff 1 800] ------- [1:255 -1:255 29 0] [0x2 2 1 [18 0] [0 4]] (REQUEST)
r 0.005360408 _9_ RTR  --- 0 AODV 48 [0 ffffffff 1 800] ------- [1:255 -1:255 29 0] [0x2 2 1 [18 0] [0 4]] (REQUEST)
r 0.005360498 _7_ RTR  --- 0 AODV 48 [0 ffffffff 1 800] ------- [1:255 -1:255 29 0] [0x2 2 1 [18 0] [0 4]] (REQUEST)
r 0.005360596 _10_ RTR  --- 0 AODV 48 [0 ffffffff 1 800] ------- [1:255 -1:255 29 0] [0x2 2 1 [18 0] [0 4]] (REQUEST)
r 0.005360756 _6_ RTR  --- 0 AODV 48 [0 ffffffff 1 800] ------- [1:255 -1:255 29 0] [0x2 2 1 [18 0] [0 4]] (REQUEST)
r 0.005360815 _4_ RTR  --- 0 AODV 48 [0 ffffffff 1 800] ------- [1:255 -1:255 29 0] [0x2 2 1 [18 0] [0 4]] (REQUEST)
r 0.005360994 _5_ RTR  --- 0 AODV 48 [0 ffffffff 1 800] ------- [1:255 -1:255 29 0] [0x2 2 1 [18 0] [0 4]] (REQUEST)
r 0.005361047 _3_ RTR  --- 0 AODV 48 [0 ffffffff 1 800] ------- [1:255 -1:255 29 0] [0x2 2 1 [18 0] [0 4]] (REQUEST)
r 0.005361361 _2_ RTR  --- 0 AODV 48 [0 ffffffff 1 800] ------- [1:255 -1:255 29 0] [0x2 2 1 [18 0] [0 4]] (REQUEST)
s 0.005424770 _0_ MAC  --- 0 RTS 44 [52e 12 0 0] 
s 0.005455664 _9_ RTR  --- 0 AODV 48 [0 ffffffff 0 800] ------- [9:255 -1:255 29 0] [0x2 2 1 [18 0] [0 4]] (REQUEST)
r 0.005777304 _18_ MAC  --- 0 RTS 44 [52e 12 0 0] 
s 0.005787304 _18_ MAC  --- 0 CTS 38 [3f4 0 0 0] 
s 0.005827054 _7_ RTR  --- 0 AODV 48 [0 ffffffff 0 800] ------- [7:255 -1:255 29 0] [0x2 2 1 [18 0] [0 4]] (REQUEST)
s 0.005876480 _5_ RTR  --- 0 AODV 48 [0 ffffffff 0 800] ------- [5:255 -1:255 29 0] [0x2 2 1 [18 0] [0 4]] (REQUEST)
r 0.006091837 _0_ MAC  --- 0 CTS 38 [3f4 0 0 0] 
s 0.006101837 _0_ MAC  --- 0 ARP 86 [13a 12 0 806] ------- [REPLY 0/0 18/18]
s 0.006388115 _13_ RTR  --- 0 AODV 48 [0 ffffffff 0 800] ------- [13:255 -1:255 29 0] [0x2 2 1 [18 0] [0 4]] (REQUEST)
s 0.006580874 _3_ RTR  --- 0 AODV 48 [0 ffffffff 0 800] ------- [3:255 -1:255 29 0] [0x2 2 1 [18 0] [0 4]] (REQUEST)
r 0.006790370 _18_ MAC  --- 0 ARP 28 [13a 12 0 806] ------- [REPLY 0/0 18/18]
s 0.006800370 _18_ MAC  --- 0 ACK 38 [0 0 0 0] 
r 0.007104903 _0_ MAC  --- 0 ACK 38 [0 0 0 0] 
s 0.007175913 _13_ MAC  --- 0 AODV 106 [0 ffffffff d 800] ------- [13:255 -1:255 29 0] [0x2 2 1 [18 0] [0 4]] (REQUEST)
s 0.007253350 _22_ RTR  --- 0 AODV 48 [0 ffffffff 0 800] ------- [22:255 -1:255 29 0] [0x2 2 1 [18 0] [0 4]] (REQUEST)
s 0.007679360 _8_ RTR  --- 0 AODV 48 [0 ffffffff 0 800] ------- [8:255 -1:255 29 0] [0x2 2 1 [18 0] [0 4]] (REQUEST)
s 0.007680758 _6_ RTR  --- 0 AODV 48 [0 ffffffff 0 800] ------- [6:255 -1:255 29 0] [0x2 2 1 [18 0] [0 4]] (REQUEST)
r 0.008024444 _11_ MAC  --- 0 AODV 48 [0 ffffffff d 800] ------- [13:255 -1:255 29 0] [0x2 2 1 [18 0] [0 4]] (REQUEST)
r 0.008024489 _20_ MAC  --- 0 AODV 48 [0 ffffffff d 800] ------- [13:255 -1:255 29 0] [0x2 2 1 [18 0] [0 4]] (REQUEST)
r 0.008024581 _12_ MAC  --- 0 AODV 48 [0 ffffffff d 800] ------- [13:255 -1:255 29 0] [0x2 2 1 [18 0] [0 4]] (REQUEST)
r 0.008024595 _19_ MAC  --- 0 AODV 48 [0 ffffffff d 800] ------- [13:255 -1:255 29 0] [0x2 2 1 [18 0] [0 4]] (REQUEST)
r 0.008024799 _8_ MAC  --- 0 AODV 48 [0 ffffffff d 800] ------- [13:255 -1:255 29 0] [0x2 2 1 [18 0] [0 4]] (REQUEST)
r 0.008025005 _21_ MAC  --- 0 AODV 48 [0 ffffffff d 800] ------- [13:255 -1:255 29 0] [0x2 2 1 [18 0] [0 4]] (REQUEST)
r 0.008025028 _22_ MAC  --- 0 AODV 48 [0 ffffffff d 800] ------- [13:255 -1:255 29 0] [0x2 2 1 [18 0] [0 4]] (REQUEST)
r 0.008025095 _0_ MAC  --- 0 AODV 48 [0 ffffffff d 800] ------- [13:255 -1:255 29 0] [0x2 2 1 [18 0] [0 4]] (REQUEST)
r 0.008025116 _6_ MAC  --- 0 AODV 48 [0 ffffffff d 800] ------- [13:255 -1:255 29 0] [0x2 2 1 [18 0] [0 4]] (REQUEST)
r 0.008025154 _7_ MAC  --- 0 AODV 48 [0 ffffffff d 800] ------- [13:255 -1:255 29 0] [0x2 2 1 [18 0] [0 4]] (REQUEST)
r 0.008025374 _14_ MAC  --- 0 AODV 48 [0 ffffffff d 800] ------- [13:255 -1:255 29 0] [0x2 2 1 [18 0] [0 4]] (REQUEST)
r 0.008025456 _18_ MAC  --- 0 AODV 48 [0 ffffffff d 800] ------- [13:255 -1:255 29 0] [0x2 2 1 [18 0] [0 4]] (REQUEST)
r 0.008025525 _5_ MAC  --- 0 AODV 48 [0 ffffffff d 800] ------- [13:255 -1:255 29 0] [0x2 2 1 [18 0] [0 4]] (REQUEST)
r 0.008025618 _15_ MAC  --- 0 AODV 48 [0 ffffffff d 800] ------- [13:255 -1:255 29 0] [0x2 2 1 [18 0] [0 4]] (REQUEST)
r 0.008025688 _4_ MAC  --- 0 AODV 48 [0 ffffffff d 800] ------- [13:255 -1:255 29 0] [0x2 2 1 [18 0] [0 4]] (REQUEST)
r 0.008025694 _9_ MAC  --- 0 AODV 48 [0 ffffffff d 800] ------- [13:255 -1:255 29 0] [0x2 2 1 [18 0] [0 4]] (REQUEST)
r 0.008025731 _17_ MAC  --- 0 AODV 48 [0 ffffffff d 800] ------- [13:255 -1:255 29 0] [0x2 2 1 [18 0] [0 4]] (REQUEST)
r 0.008026020 _16_ MAC  --- 0 AODV 48 [0 ffffffff d 800] ------- [13:255 -1:255 29 0] [0x2 2 1 [18 0] [0 4]] (REQUEST)
r 0.008026061 _2_ MAC  --- 0 AODV 48 [0 ffffffff d 800] ------- [13:255 -1:255 29 0] [0x2 2 1 [18 0] [0 4]] (REQUEST)
r 0.008026100 _3_ MAC  --- 0 AODV 48 [0 ffffffff d 800] ------- [13:255 -1:255 29 0] [0x2 2 1 [18 0] [0 4]] (REQUEST)
r 0.008026130 _10_ MAC  --- 0 AODV 48 [0 ffffffff d 800] ------- [13:255 -1:255 29 0] [0x2 2 1 [18 0] [0 4]] (REQUEST)
r 0.008027007 _1_ MAC  --- 0 AODV 48 [0 ffffffff d 800] ------- [13:255 -1:255 29 0] [0x2 2 1 [18 0] [0 4]] (REQUEST)
r 0.008049444 _11_ RTR  --- 0 AODV 48 [0 ffffffff d 800] ------- [13:255 -1:255 29 0] [0x2 2 1 [18 0] [0 4]] (REQUEST)
r 0.008049489 _20_ RTR  --- 0 AODV 48 [0 ffffffff d 800] ------- [13:255 -1:255 29 0] [0x2 2 1 [18 0] [0 4]] (REQUEST)
r 0.008049581 _12_ RTR  --- 0 AODV 48 [0 ffffffff d 800] ------- [13:255 -1:255 29 0] [0x2 2 1 [18 0] [0 4]] (REQUEST)
r 0.008049595 _19_ RTR  --- 0 AODV 48 [0 ffffffff d 800] ------- [13:255 -1:255 29 0] [0x2 2 1 [18 0] [0 4]] (REQUEST)
r 0.008049799 _8_ RTR  --- 0 AODV 48 [0 ffffffff d 800] ------- [13:255 -1:255 29 0] [0x2 2 1 [18 0] [0 4]] (REQUEST)
r 0.008050005 _21_ RTR  --- 0 AODV 48 [0 ffffffff d 800] ------- [13:255 -1:255 29 0] [0x2 2 1 [18 0] [0 4]] (REQUEST)
r 0.008050028 _22_ RTR  --- 0 AODV 48 [0 ffffffff d 800] ------- [13:255 -1:255 29 0] [0x2 2 1 [18 0] [0 4]] (REQUEST)
r 0.008050095 _0_ RTR  --- 0 AODV 48 [0 ffffffff d 800] ------- [13:255 -1:255 29 0] [0x2 2 1 [18 0] [0 4]] (REQUEST)
r 0.008050116 _6_ RTR  --- 0 AODV 48 [0 ffffffff d 800] ------- [13:255 -1:255 29 0] [0x2 2 1 [18 0] [0 4]] (REQUEST)
r 0.008050154 _7_ RTR  --- 0 AODV 48 [0 ffffffff d 800] ------- [13:255 -1:255 29 0] [0x2 2 1 [18 0] [0 4]] (REQUEST)
r 0.008050374 _14_ RTR  --- 0 AODV 48 [0 ffffffff d 800] ------- [13:255 -1:255 29 0] [0x2 2 1 [18 0] [0 4]] (REQUEST)